LAMMPS data file printed by ambr2lmp.py

26 atoms
27 bonds
43 angles
74 dihedrals
0 impropers

6 atom types
6 bond types
8 angle types
4 dihedral types

-5.2841 4.727556 xlo xhi
-2.016915 2.278156 ylo yhi
-2.136321 2.136321 zlo zhi

Masses

1 12.01
2 1.008
3 32.06
4 16.0
5 14.01
6 1.008

Pair Coeffs

1 0.086 3.39967 # ca
2 0.015 2.59964 # ha
3 0.25 3.56359 # sy
4 0.21 2.95992 # o
5 0.17 3.25 # nh
6 0.0157 1.06908 # hn

Bond Coeffs

1 461.1 1.3984
2 417.9 1.3859
3 345.8 1.086
4 243.4 1.7909
5 493.0 1.466
6 404.6 1.0121

Angle Coeffs

1 48.18 119.88
2 66.62 120.02
3 68.29 120.95
4 61.48 119.42
5 60.3 104.44
6 65.77 108.35
7 48.42 116.07
8 72.54 121.41

Dihedral Coeffs

1 3.625 -1 2
2 1.3 -1 2
3 1.05 -1 2
4 1.1 -1 2

Atoms

1 0 1 0.3312 3.645948 -1.154156 1e-06 # ca
2 0 1 -0.2143 3.079323 -0.727726 -1.202742 # ca
3 0 2 0.1607 3.510603 -1.043206 -2.136318 # ha
4 0 1 -0.178 1.97574 0.098213 -1.200696 # ca
5 0 2 0.177 1.560356 0.440788 -2.129208 # ha
6 0 1 -0.0228 1.414479 0.510991 1e-06 # ca
7 0 1 -0.178 1.975731 0.098202 1.200697 # ca
8 0 2 0.177 1.560339 0.440768 2.12921 # ha
9 0 1 -0.2143 3.079314 -0.727738 1.202745 # ca
10 0 2 0.1607 3.510586 -1.043227 2.136321 # ha
11 0 1 -0.0228 -1.41448 0.510991 -1e-06 # ca
12 0 1 -0.178 -1.975731 0.098202 -1.200697 # ca
13 0 2 0.177 -1.560339 0.440768 -2.12921 # ha
14 0 1 -0.2143 -3.079314 -0.727737 -1.202745 # ca
15 0 2 0.1607 -3.510586 -1.043227 -2.136321 # ha
16 0 1 0.3312 -3.645948 -1.154156 -2e-06 # ca
17 0 1 -0.178 -1.97574 0.098214 1.200696 # ca
18 0 2 0.177 -1.560356 0.440789 2.129208 # ha
19 0 1 -0.2143 -3.079323 -0.727726 1.202742 # ca
20 0 2 0.1607 -3.510603 -1.043206 2.136318 # ha
21 0 3 0.9668 0.0 1.566959 0.0 # sy
22 0 4 -0.5706 1e-06 2.278155 -1.251022 # o
23 0 4 -0.5706 -1e-06 2.278156 1.251022 # o
24 0 5 -0.8502 4.727556 -2.016915 2e-06 # nh
25 0 5 -0.8502 -4.727556 -2.016915 -2e-06 # nh
26 0 6 0.3691 -5.2841 -2.012177 0.826443 # hn

Bonds

1 3 2 3
2 3 4 5
3 3 7 8
4 3 9 10
5 3 12 13
6 3 14 15
7 3 17 18
8 3 19 20
9 6 25 26
10 1 1 2
11 1 1 9
12 2 1 24
13 1 2 4
14 1 4 6
15 1 6 7
16 4 6 21
17 1 7 9
18 1 11 12
19 1 11 17
20 4 11 21
21 1 12 14
22 1 14 16
23 1 16 19
24 2 16 25
25 1 17 19
26 5 21 22
27 5 21 23

Angles

1 1 1 2 3
2 1 1 9 10
3 1 2 4 5
4 1 3 2 4
5 1 5 4 6
6 1 6 7 8
7 1 7 9 10
8 1 8 7 9
9 1 11 12 13
10 1 11 17 18
11 1 12 14 15
12 1 13 12 14
13 1 15 14 16
14 1 16 19 20
15 7 16 25 26
16 1 17 19 20
17 1 18 17 19
18 2 1 2 4
19 2 1 9 7
20 2 2 1 9
21 3 2 1 24
22 2 2 4 6
23 2 4 6 7
24 4 4 6 21
25 2 6 7 9
26 5 6 21 11
27 6 6 21 22
28 6 6 21 23
29 4 7 6 21
30 3 9 1 24
31 2 11 12 14
32 2 11 17 19
33 6 11 21 22
34 6 11 21 23
35 2 12 11 17
36 4 12 11 21
37 2 12 14 16
38 2 14 16 19
39 3 14 16 25
40 2 16 19 17
41 4 17 11 21
42 3 19 16 25
43 8 22 21 23

Dihedrals

1 1 1 2 4 5
2 1 1 9 7 8
3 1 2 1 9 10
4 1 9 1 2 3
5 1 24 1 2 3
6 1 3 2 4 5
7 1 3 2 4 6
8 1 4 6 7 8
9 1 5 4 6 7
10 1 5 4 6 21
11 1 6 7 9 10
12 1 8 7 6 21
13 1 8 7 9 10
14 1 24 1 9 10
15 1 11 12 14 15
16 1 11 17 19 20
17 1 12 11 17 18
18 1 13 12 11 17
19 1 13 12 11 21
20 1 13 12 14 15
21 1 13 12 14 16
22 1 14 16 19 20
23 3 14 16 25 26
24 1 15 14 16 19
25 1 15 14 16 25
26 1 16 19 17 18
27 1 18 17 11 21
28 1 18 17 19 20
29 3 19 16 25 26
30 1 20 19 16 25
31 4 1 4 2 3
32 4 2 6 4 5
33 4 6 9 7 8
34 4 1 7 9 10
35 4 11 14 12 13
36 4 12 16 14 15
37 4 11 19 17 18
38 4 16 17 19 20
39 1 1 2 4 6
40 1 1 9 7 6
41 1 2 1 9 7
42 1 2 4 6 7
43 1 2 4 6 21
44 1 9 1 2 4
45 1 24 1 2 4
46 1 4 6 7 9
47 2 4 6 21 11
48 2 4 6 21 22
49 2 4 6 21 23
50 2 6 21 11 12
51 2 6 21 11 17
52 2 7 6 21 11
53 2 7 6 21 22
54 2 7 6 21 23
55 1 24 1 9 7
56 1 9 7 6 21
57 1 11 12 14 16
58 1 11 17 19 16
59 1 12 11 17 19
60 2 12 11 21 22
61 2 12 11 21 23
62 1 12 14 16 19
63 1 12 14 16 25
64 1 14 12 11 17
65 1 14 12 11 21
66 1 14 16 19 17
67 2 17 11 21 22
68 2 17 11 21 23
69 1 17 19 16 25
70 1 19 17 11 21
71 4 24 1 9 2
72 4 4 7 6 21
73 4 12 17 11 21
74 4 14 19 16 25

